<?xml version="1.0" encoding="UTF-8"?>

<!-- generated on 2022-10-06 14:54:07 by Eclipse SUMO GUI Version 1.14.1
<configuration xmlns:xsi="http://www.w3.org/2001/XMLSchema-instance" xsi:noNamespaceSchemaLocation="http://sumo.dlr.de/xsd/sumoConfiguration.xsd">

    <input>
        <net-file value="LLC.net.xml"/>
        <route-files value="LLC_SUMO_no.rou.xml"/>
    </input>

    <output>
        <fcd-output value="./15miles_results.fcd.xml"/>
    </output>

    <time>
        <begin value="0"/>
        <end value="54470"/>
        <step-length value="0.0166666666666667"/>
    </time>

    <traci_server>
        <remote-port value="60952"/>
    </traci_server>

    <gui_only>
        <gui-settings-file value="freeway.gui.xml"/>
        <start value="true"/>
    </gui_only>

</configuration>
-->

<fcd-export xmlns:xsi="http://www.w3.org/2001/XMLSchema-instance" xsi:noNamespaceSchemaLocation="http://sumo.dlr.de/xsd/fcd_file.xsd">
    <timestep time="0.000">
        <vehicle id="ego" x="820.000" y="12075.000" angle="0.000" type="passenger" speed="2.967" pos="12075.000" lane="-17.0.00_1" slope="0.000"/>
    </timestep>
    <timestep time="0.017">
        <vehicle id="0" x="823.940" y="12095.837" angle="0.000" type="vtypeauto" speed="2.967" pos="12095.837" lane="-17.0.00_0" slope="0.000"/>
        <vehicle id="1" x="823.940" y="12089.870" angle="0.000" type="vtypeauto" speed="2.967" pos="12089.870" lane="-17.0.00_0" slope="0.000"/>
        <vehicle id="10" x="816.640" y="12094.935" angle="0.000" type="vtypeauto" speed="2.967" pos="12094.935" lane="-17.0.00_2" slope="0.000"/>
        <vehicle id="11" x="816.640" y="12088.967" angle="0.000" type="vtypeauto" speed="2.967" pos="12088.967" lane="-17.0.00_2" slope="0.000"/>
        <vehicle id="2" x="823.940" y="12083.902" angle="0.000" type="vtypeauto" speed="2.967" pos="12083.902" lane="-17.0.00_0" slope="0.000"/>
        <vehicle id="3" x="823.940" y="12077.935" angle="0.000" type="vtypeauto" speed="2.967" pos="12077.935" lane="-17.0.00_0" slope="0.000"/>
        <vehicle id="4" x="823.940" y="12071.967" angle="0.000" type="vtypeauto" speed="2.967" pos="12071.967" lane="-17.0.00_0" slope="0.000"/>
        <vehicle id="5" x="820.290" y="12100.837" angle="0.000" type="vtypeauto" speed="2.967" pos="12100.837" lane="-17.0.00_1" slope="0.000"/>
        <vehicle id="6" x="820.290" y="12094.870" angle="0.000" type="vtypeauto" speed="2.967" pos="12094.870" lane="-17.0.00_1" slope="0.000"/>
        <vehicle id="7" x="820.290" y="12088.902" angle="0.000" type="vtypeauto" speed="2.967" pos="12088.902" lane="-17.0.00_1" slope="0.000"/>
        <vehicle id="8" x="820.290" y="12082.935" angle="0.000" type="vtypeauto" speed="2.967" pos="12082.935" lane="-17.0.00_1" slope="0.000"/>
        <vehicle id="ego" x="820.000" y="12075.000" angle="0.000" type="passenger" speed="2.865" pos="12075.000" lane="-17.0.00_1" slope="0.000"/>
    </timestep>
    <timestep time="0.034">
        <vehicle id="0" x="823.940" y="12095.890" angle="0.000" type="vtypeauto" speed="3.111" pos="12095.890" lane="-17.0.00_0" slope="0.000"/>
        <vehicle id="1" x="823.940" y="12089.917" angle="0.000" type="vtypeauto" speed="2.797" pos="12089.917" lane="-17.0.00_0" slope="0.000"/>
        <vehicle id="10" x="816.640" y="12094.988" angle="0.000" type="vtypeauto" speed="3.112" pos="12094.988" lane="-17.0.00_2" slope="0.000"/>
        <vehicle id="11" x="816.640" y="12089.015" angle="0.000" type="vtypeauto" speed="2.797" pos="12089.015" lane="-17.0.00_2" slope="0.000"/>
        <vehicle id="2" x="823.940" y="12083.950" angle="0.000" type="vtypeauto" speed="2.797" pos="12083.950" lane="-17.0.00_0" slope="0.000"/>
        <vehicle id="3" x="823.940" y="12077.982" angle="0.000" type="vtypeauto" speed="2.797" pos="12077.982" lane="-17.0.00_0" slope="0.000"/>
        <vehicle id="4" x="823.940" y="12072.015" angle="0.000" type="vtypeauto" speed="2.797" pos="12072.015" lane="-17.0.00_0" slope="0.000"/>
        <vehicle id="5" x="820.290" y="12100.890" angle="0.000" type="vtypeauto" speed="3.119" pos="12100.890" lane="-17.0.00_1" slope="0.000"/>
        <vehicle id="6" x="820.290" y="12094.917" angle="0.000" type="vtypeauto" speed="2.797" pos="12094.917" lane="-17.0.00_1" slope="0.000"/>
        <vehicle id="7" x="820.290" y="12088.950" angle="0.000" type="vtypeauto" speed="2.797" pos="12088.950" lane="-17.0.00_1" slope="0.000"/>
        <vehicle id="8" x="820.290" y="12082.982" angle="0.000" type="vtypeauto" speed="2.797" pos="12082.982" lane="-17.0.00_1" slope="0.000"/>
        <vehicle id="ego" x="820.000" y="12075.000" angle="0.000" type="passenger" speed="2.763" pos="12075.000" lane="-17.0.00_1" slope="0.000"/>
    </timestep>
    <timestep time="0.051">
        <vehicle id="0" x="823.940" y="12095.940" angle="0.000" type="vtypeauto" speed="2.967" pos="12095.940" lane="-17.0.00_0" slope="0.000"/>
        <vehicle id="1" x="823.940" y="12089.962" angle="0.000" type="vtypeauto" speed="2.627" pos="12089.962" lane="-17.0.00_0" slope="0.000"/>
        <vehicle id="10" x="816.640" y="12095.038" angle="0.000" type="vtypeauto" speed="2.967" pos="12095.038" lane="-17.0.00_2" slope="0.000"/>
        <vehicle id="11" x="816.640" y="12089.060" angle="0.000" type="vtypeauto" speed="2.627" pos="12089.060" lane="-17.0.00_2" slope="0.000"/>
        <vehicle id="2" x="823.940" y="12083.994" angle="0.000" type="vtypeauto" speed="2.627" pos="12083.994" lane="-17.0.00_0" slope="0.000"/>
        <vehicle id="3" x="823.940" y="12078.027" angle="0.000" type="vtypeauto" speed="2.627" pos="12078.027" lane="-17.0.00_0" slope="0.000"/>
        <vehicle id="4" x="823.940" y="12072.060" angle="0.000" type="vtypeauto" speed="2.627" pos="12072.060" lane="-17.0.00_0" slope="0.000"/>
        <vehicle id="5" x="820.290" y="12100.941" angle="0.000" type="vtypeauto" speed="2.967" pos="12100.941" lane="-17.0.00_1" slope="0.000"/>
        <vehicle id="6" x="820.290" y="12094.962" angle="0.000" type="vtypeauto" speed="2.627" pos="12094.962" lane="-17.0.00_1" slope="0.000"/>
        <vehicle id="7" x="820.290" y="12088.994" angle="0.000" type="vtypeauto" speed="2.627" pos="12088.994" lane="-17.0.00_1" slope="0.000"/>
        <vehicle id="8" x="820.290" y="12083.027" angle="0.000" type="vtypeauto" speed="2.627" pos="12083.027" lane="-17.0.00_1" slope="0.000"/>
        <vehicle id="ego" x="820.000" y="12075.000" angle="0.000" type="passenger" speed="2.661" pos="12075.000" lane="-17.0.00_1" slope="0.000"/>
    </timestep>
    <timestep time="0.068">
        <vehicle id="0" x="823.940" y="12095.993" angle="0.000" type="vtypeauto" speed="3.111" pos="12095.993" lane="-17.0.00_0" slope="0.000"/>
        <vehicle id="1" x="823.940" y="12090.004" angle="0.000" type="vtypeauto" speed="2.457" pos="12090.004" lane="-17.0.00_0" slope="0.000"/>
        <vehicle id="10" x="816.640" y="12095.091" angle="0.000" type="vtypeauto" speed="3.112" pos="12095.091" lane="-17.0.00_2" slope="0.000"/>
        <vehicle id="11" x="816.640" y="12089.101" angle="0.000" type="vtypeauto" speed="2.457" pos="12089.101" lane="-17.0.00_2" slope="0.000"/>
        <vehicle id="2" x="823.940" y="12084.036" angle="0.000" type="vtypeauto" speed="2.457" pos="12084.036" lane="-17.0.00_0" slope="0.000"/>
        <vehicle id="3" x="823.940" y="12078.069" angle="0.000" type="vtypeauto" speed="2.457" pos="12078.069" lane="-17.0.00_0" slope="0.000"/>
        <vehicle id="4" x="823.940" y="12072.101" angle="0.000" type="vtypeauto" speed="2.457" pos="12072.101" lane="-17.0.00_0" slope="0.000"/>
        <vehicle id="5" x="820.290" y="12100.994" angle="0.000" type="vtypeauto" speed="3.119" pos="12100.994" lane="-17.0.00_1" slope="0.000"/>
        <vehicle id="6" x="820.290" y="12095.004" angle="0.000" type="vtypeauto" speed="2.457" pos="12095.004" lane="-17.0.00_1" slope="0.000"/>
        <vehicle id="7" x="820.290" y="12089.036" angle="0.000" type="vtypeauto" speed="2.457" pos="12089.036" lane="-17.0.00_1" slope="0.000"/>
        <vehicle id="8" x="820.290" y="12083.069" angle="0.000" type="vtypeauto" speed="2.457" pos="12083.069" lane="-17.0.00_1" slope="0.000"/>
        <vehicle id="ego" x="820.000" y="12075.000" angle="0.000" type="passenger" speed="2.559" pos="12075.000" lane="-17.0.00_1" slope="0.000"/>
    </timestep>
    <timestep time="0.085">
        <vehicle id="0" x="823.940" y="12096.044" angle="0.000" type="vtypeauto" speed="2.967" pos="12096.044" lane="-17.0.00_0" slope="0.000"/>
        <vehicle id="1" x="823.940" y="12090.043" angle="0.000" type="vtypeauto" speed="2.287" pos="12090.043" lane="-17.0.00_0" slope="0.000"/>
        <vehicle id="10" x="816.640" y="12095.142" angle="0.000" type="vtypeauto" speed="2.967" pos="12095.142" lane="-17.0.00_2" slope="0.000"/>
        <vehicle id="11" x="816.640" y="12089.140" angle="0.000" type="vtypeauto" speed="2.287" pos="12089.140" lane="-17.0.00_2" slope="0.000"/>
        <vehicle id="2" x="823.940" y="12084.075" angle="0.000" type="vtypeauto" speed="2.287" pos="12084.075" lane="-17.0.00_0" slope="0.000"/>
        <vehicle id="3" x="823.940" y="12078.108" angle="0.000" type="vtypeauto" speed="2.287" pos="12078.108" lane="-17.0.00_0" slope="0.000"/>
        <vehicle id="4" x="823.940" y="12072.140" angle="0.000" type="vtypeauto" speed="2.287" pos="12072.140" lane="-17.0.00_0" slope="0.000"/>
        <vehicle id="5" x="820.290" y="12101.044" angle="0.000" type="vtypeauto" speed="2.967" pos="12101.044" lane="-17.0.00_1" slope="0.000"/>
        <vehicle id="6" x="820.290" y="12095.043" angle="0.000" type="vtypeauto" speed="2.287" pos="12095.043" lane="-17.0.00_1" slope="0.000"/>
        <vehicle id="7" x="820.290" y="12089.075" angle="0.000" type="vtypeauto" speed="2.287" pos="12089.075" lane="-17.0.00_1" slope="0.000"/>
        <vehicle id="8" x="820.290" y="12083.108" angle="0.000" type="vtypeauto" speed="2.287" pos="12083.108" lane="-17.0.00_1" slope="0.000"/>
        <vehicle id="ego" x="820.000" y="12075.000" angle="0.000" type="passenger" speed="2.457" pos="12075.000" lane="-17.0.00_1" slope="0.000"/>
    </timestep>
    <timestep time="0.102">
        <vehicle id="0" x="823.940" y="12096.097" angle="0.000" type="vtypeauto" speed="3.111" pos="12096.097" lane="-17.0.00_0" slope="0.000"/>
        <vehicle id="1" x="823.940" y="12090.080" angle="0.000" type="vtypeauto" speed="2.194" pos="12090.080" lane="-17.0.00_0" slope="0.000"/>
        <vehicle id="10" x="816.640" y="12095.194" angle="0.000" type="vtypeauto" speed="3.112" pos="12095.194" lane="-17.0.00_2" slope="0.000"/>
        <vehicle id="11" x="816.640" y="12089.178" angle="0.000" type="vtypeauto" speed="2.194" pos="12089.178" lane="-17.0.00_2" slope="0.000"/>
        <vehicle id="2" x="823.940" y="12084.111" angle="0.000" type="vtypeauto" speed="2.117" pos="12084.111" lane="-17.0.00_0" slope="0.000"/>
        <vehicle id="3" x="823.940" y="12078.144" angle="0.000" type="vtypeauto" speed="2.117" pos="12078.144" lane="-17.0.00_0" slope="0.000"/>
        <vehicle id="4" x="823.940" y="12072.176" angle="0.000" type="vtypeauto" speed="2.117" pos="12072.176" lane="-17.0.00_0" slope="0.000"/>
        <vehicle id="5" x="820.290" y="12101.097" angle="0.000" type="vtypeauto" speed="3.119" pos="12101.097" lane="-17.0.00_1" slope="0.000"/>
        <vehicle id="6" x="820.290" y="12095.080" angle="0.000" type="vtypeauto" speed="2.194" pos="12095.080" lane="-17.0.00_1" slope="0.000"/>
        <vehicle id="7" x="820.290" y="12089.111" angle="0.000" type="vtypeauto" speed="2.117" pos="12089.111" lane="-17.0.00_1" slope="0.000"/>
        <vehicle id="8" x="820.290" y="12083.144" angle="0.000" type="vtypeauto" speed="2.117" pos="12083.144" lane="-17.0.00_1" slope="0.000"/>
        <vehicle id="ego" x="820.000" y="12075.000" angle="0.000" type="passenger" speed="2.355" pos="12075.000" lane="-17.0.00_1" slope="0.000"/>
    </timestep>
    <timestep time="0.119">
        <vehicle id="0" x="823.940" y="12096.147" angle="0.000" type="vtypeauto" speed="2.967" pos="12096.147" lane="-17.0.00_0" slope="0.000"/>
        <vehicle id="1" x="823.940" y="12090.118" angle="0.000" type="vtypeauto" speed="2.241" pos="12090.118" lane="-17.0.00_0" slope="0.000"/>
        <vehicle id="10" x="816.640" y="12095.245" angle="0.000" type="vtypeauto" speed="2.967" pos="12095.245" lane="-17.0.00_2" slope="0.000"/>
        <vehicle id="11" x="816.640" y="12089.216" angle="0.000" type="vtypeauto" speed="2.242" pos="12089.216" lane="-17.0.00_2" slope="0.000"/>
        <vehicle id="2" x="823.940" y="12084.145" angle="0.000" type="vtypeauto" speed="2.005" pos="12084.145" lane="-17.0.00_0" slope="0.000"/>
        <vehicle id="3" x="823.940" y="12078.178" angle="0.000" type="vtypeauto" speed="1.991" pos="12078.178" lane="-17.0.00_0" slope="0.000"/>
        <vehicle id="4" x="823.940" y="12072.210" angle="0.000" type="vtypeauto" speed="1.991" pos="12072.210" lane="-17.0.00_0" slope="0.000"/>
        <vehicle id="5" x="820.290" y="12101.148" angle="0.000" type="vtypeauto" speed="2.967" pos="12101.148" lane="-17.0.00_1" slope="0.000"/>
        <vehicle id="6" x="820.290" y="12095.118" angle="0.000" type="vtypeauto" speed="2.244" pos="12095.118" lane="-17.0.00_1" slope="0.000"/>
        <vehicle id="7" x="820.290" y="12089.145" angle="0.000" type="vtypeauto" speed="2.006" pos="12089.145" lane="-17.0.00_1" slope="0.000"/>
        <vehicle id="8" x="820.290" y="12083.178" angle="0.000" type="vtypeauto" speed="1.991" pos="12083.178" lane="-17.0.00_1" slope="0.000"/>
        <vehicle id="ego" x="820.000" y="12075.000" angle="0.000" type="passenger" speed="2.253" pos="12075.000" lane="-17.0.00_1" slope="0.000"/>
    </timestep>
    <timestep time="0.136">
        <vehicle id="0" x="823.940" y="12096.200" angle="0.000" type="vtypeauto" speed="3.111" pos="12096.200" lane="-17.0.00_0" slope="0.000"/>
        <vehicle id="1" x="823.940" y="12090.155" angle="0.000" type="vtypeauto" speed="2.184" pos="12090.155" lane="-17.0.00_0" slope="0.000"/>
        <vehicle id="10" x="816.640" y="12095.298" angle="0.000" type="vtypeauto" speed="3.112" pos="12095.298" lane="-17.0.00_2" slope="0.000"/>
        <vehicle id="11" x="816.640" y="12089.253" angle="0.000" type="vtypeauto" speed="2.184" pos="12089.253" lane="-17.0.00_2" slope="0.000"/>
        <vehicle id="2" x="823.940" y="12084.180" angle="0.000" type="vtypeauto" speed="2.018" pos="12084.180" lane="-17.0.00_0" slope="0.000"/>
        <vehicle id="3" x="823.940" y="12078.211" angle="0.000" type="vtypeauto" speed="1.973" pos="12078.211" lane="-17.0.00_0" slope="0.000"/>
        <vehicle id="4" x="823.940" y="12072.244" angle="0.000" type="vtypeauto" speed="1.970" pos="12072.244" lane="-17.0.00_0" slope="0.000"/>
        <vehicle id="5" x="820.290" y="12101.201" angle="0.000" type="vtypeauto" speed="3.119" pos="12101.201" lane="-17.0.00_1" slope="0.000"/>
        <vehicle id="6" x="820.290" y="12095.155" angle="0.000" type="vtypeauto" speed="2.185" pos="12095.155" lane="-17.0.00_1" slope="0.000"/>
        <vehicle id="7" x="820.290" y="12089.180" angle="0.000" type="vtypeauto" speed="2.018" pos="12089.180" lane="-17.0.00_1" slope="0.000"/>
        <vehicle id="8" x="820.290" y="12083.211" angle="0.000" type="vtypeauto" speed="1.973" pos="12083.211" lane="-17.0.00_1" slope="0.000"/>
        <vehicle id="ego" x="820.000" y="12075.000" angle="0.000" type="passenger" speed="2.151" pos="12075.000" lane="-17.0.00_1" slope="0.000"/>
    </timestep>
    <timestep time="0.153">
        <vehicle id="0" x="823.940" y="12096.250" angle="0.000" type="vtypeauto" speed="2.967" pos="12096.250" lane="-17.0.00_0" slope="0.000"/>
        <vehicle id="1" x="823.940" y="12090.193" angle="0.000" type="vtypeauto" speed="2.230" pos="12090.193" lane="-17.0.00_0" slope="0.000"/>
        <vehicle id="10" x="816.640" y="12095.348" angle="0.000" type="vtypeauto" speed="2.967" pos="12095.348" lane="-17.0.00_2" slope="0.000"/>
        <vehicle id="11" x="816.640" y="12089.291" angle="0.000" type="vtypeauto" speed="2.231" pos="12089.291" lane="-17.0.00_2" slope="0.000"/>
        <vehicle id="2" x="823.940" y="12084.213" angle="0.000" type="vtypeauto" speed="1.996" pos="12084.213" lane="-17.0.00_0" slope="0.000"/>
        <vehicle id="3" x="823.940" y="12078.245" angle="0.000" type="vtypeauto" speed="1.975" pos="12078.245" lane="-17.0.00_0" slope="0.000"/>
        <vehicle id="4" x="823.940" y="12072.277" angle="0.000" type="vtypeauto" speed="1.967" pos="12072.277" lane="-17.0.00_0" slope="0.000"/>
        <vehicle id="5" x="820.290" y="12101.251" angle="0.000" type="vtypeauto" speed="2.967" pos="12101.251" lane="-17.0.00_1" slope="0.000"/>
        <vehicle id="6" x="820.290" y="12095.193" angle="0.000" type="vtypeauto" speed="2.233" pos="12095.193" lane="-17.0.00_1" slope="0.000"/>
        <vehicle id="7" x="820.290" y="12089.213" angle="0.000" type="vtypeauto" speed="1.996" pos="12089.213" lane="-17.0.00_1" slope="0.000"/>
        <vehicle id="8" x="820.290" y="12083.245" angle="0.000" type="vtypeauto" speed="1.975" pos="12083.245" lane="-17.0.00_1" slope="0.000"/>
        <vehicle id="ego" x="820.000" y="12075.000" angle="0.000" type="passenger" speed="2.049" pos="12075.000" lane="-17.0.00_1" slope="0.000"/>
    </timestep>
    <timestep time="0.170">
        <vehicle id="0" x="823.940" y="12096.303" angle="0.000" type="vtypeauto" speed="3.111" pos="12096.303" lane="-17.0.00_0" slope="0.000"/>
        <vehicle id="1" x="823.940" y="12090.230" angle="0.000" type="vtypeauto" speed="2.176" pos="12090.230" lane="-17.0.00_0" slope="0.000"/>
        <vehicle id="10" x="816.640" y="12095.401" angle="0.000" type="vtypeauto" speed="3.112" pos="12095.401" lane="-17.0.00_2" slope="0.000"/>
        <vehicle id="11" x="816.640" y="12089.328" angle="0.000" type="vtypeauto" speed="2.176" pos="12089.328" lane="-17.0.00_2" slope="0.000"/>
        <vehicle id="2" x="823.940" y="12084.248" angle="0.000" type="vtypeauto" speed="2.007" pos="12084.248" lane="-17.0.00_0" slope="0.000"/>
        <vehicle id="3" x="823.940" y="12078.278" angle="0.000" type="vtypeauto" speed="1.962" pos="12078.278" lane="-17.0.00_0" slope="0.000"/>
        <vehicle id="4" x="823.940" y="12072.310" angle="0.000" type="vtypeauto" speed="1.960" pos="12072.310" lane="-17.0.00_0" slope="0.000"/>
        <vehicle id="5" x="820.290" y="12101.304" angle="0.000" type="vtypeauto" speed="3.119" pos="12101.304" lane="-17.0.00_1" slope="0.000"/>
        <vehicle id="6" x="820.290" y="12095.230" angle="0.000" type="vtypeauto" speed="2.176" pos="12095.230" lane="-17.0.00_1" slope="0.000"/>
        <vehicle id="7" x="820.290" y="12089.248" angle="0.000" type="vtypeauto" speed="2.008" pos="12089.248" lane="-17.0.00_1" slope="0.000"/>
        <vehicle id="8" x="820.290" y="12083.278" angle="0.000" type="vtypeauto" speed="1.962" pos="12083.278" lane="-17.0.00_1" slope="0.000"/>
        <vehicle id="ego" x="820.000" y="12075.000" angle="0.000" type="passenger" speed="1.947" pos="12075.000" lane="-17.0.00_1" slope="0.000"/>
    </timestep>
    <timestep time="0.187">
        <vehicle id="0" x="823.940" y="12096.354" angle="0.000" type="vtypeauto" speed="2.967" pos="12096.354" lane="-17.0.00_0" slope="0.000"/>
        <vehicle id="1" x="823.940" y="12090.268" angle="0.000" type="vtypeauto" speed="2.220" pos="12090.268" lane="-17.0.00_0" slope="0.000"/>
        <vehicle id="10" x="816.640" y="12095.452" angle="0.000" type="vtypeauto" speed="2.967" pos="12095.452" lane="-17.0.00_2" slope="0.000"/>
        <vehicle id="11" x="816.640" y="12089.365" angle="0.000" type="vtypeauto" speed="2.220" pos="12089.365" lane="-17.0.00_2" slope="0.000"/>
        <vehicle id="2" x="823.940" y="12084.281" angle="0.000" type="vtypeauto" speed="1.986" pos="12084.281" lane="-17.0.00_0" slope="0.000"/>
        <vehicle id="3" x="823.940" y="12078.311" angle="0.000" type="vtypeauto" speed="1.965" pos="12078.311" lane="-17.0.00_0" slope="0.000"/>
        <vehicle id="4" x="823.940" y="12072.344" angle="0.000" type="vtypeauto" speed="1.957" pos="12072.344" lane="-17.0.00_0" slope="0.000"/>
        <vehicle id="5" x="820.290" y="12101.354" angle="0.000" type="vtypeauto" speed="2.967" pos="12101.354" lane="-17.0.00_1" slope="0.000"/>
        <vehicle id="6" x="820.290" y="12095.268" angle="0.000" type="vtypeauto" speed="2.222" pos="12095.268" lane="-17.0.00_1" slope="0.000"/>
        <vehicle id="7" x="820.290" y="12089.281" angle="0.000" type="vtypeauto" speed="1.986" pos="12089.281" lane="-17.0.00_1" slope="0.000"/>
        <vehicle id="8" x="820.290" y="12083.311" angle="0.000" type="vtypeauto" speed="1.965" pos="12083.311" lane="-17.0.00_1" slope="0.000"/>
        <vehicle id="ego" x="820.000" y="12075.000" angle="0.000" type="passenger" speed="1.845" pos="12075.000" lane="-17.0.00_1" slope="0.000"/>
    </timestep>
    <timestep time="0.204">
        <vehicle id="0" x="823.940" y="12096.407" angle="0.000" type="vtypeauto" speed="3.111" pos="12096.407" lane="-17.0.00_0" slope="0.000"/>
        <vehicle id="1" x="823.940" y="12090.305" angle="0.000" type="vtypeauto" speed="2.167" pos="12090.305" lane="-17.0.00_0" slope="0.000"/>
        <vehicle id="10" x="816.640" y="12095.505" angle="0.000" type="vtypeauto" speed="3.112" pos="12095.505" lane="-17.0.00_2" slope="0.000"/>
        <vehicle id="11" x="816.640" y="12089.402" angle="0.000" type="vtypeauto" speed="2.167" pos="12089.402" lane="-17.0.00_2" slope="0.000"/>
        <vehicle id="2" x="823.940" y="12084.315" angle="0.000" type="vtypeauto" speed="1.997" pos="12084.315" lane="-17.0.00_0" slope="0.000"/>
        <vehicle id="3" x="823.940" y="12078.345" angle="0.000" type="vtypeauto" speed="1.952" pos="12078.345" lane="-17.0.00_0" slope="0.000"/>
        <vehicle id="4" x="823.940" y="12072.377" angle="0.000" type="vtypeauto" speed="1.950" pos="12072.377" lane="-17.0.00_0" slope="0.000"/>
        <vehicle id="5" x="820.290" y="12101.407" angle="0.000" type="vtypeauto" speed="3.119" pos="12101.407" lane="-17.0.00_1" slope="0.000"/>
        <vehicle id="6" x="820.290" y="12095.305" angle="0.000" type="vtypeauto" speed="2.168" pos="12095.305" lane="-17.0.00_1" slope="0.000"/>
        <vehicle id="7" x="820.290" y="12089.315" angle="0.000" type="vtypeauto" speed="1.997" pos="12089.315" lane="-17.0.00_1" slope="0.000"/>
        <vehicle id="8" x="820.290" y="12083.345" angle="0.000" type="vtypeauto" speed="1.952" pos="12083.345" lane="-17.0.00_1" slope="0.000"/>
        <vehicle id="ego" x="820.000" y="12075.000" angle="0.000" type="passenger" speed="1.743" pos="12075.000" lane="-17.0.00_1" slope="0.000"/>
    </timestep>
    <timestep time="0.221">
        <vehicle id="0" x="823.940" y="12096.457" angle="0.000" type="vtypeauto" speed="2.967" pos="12096.457" lane="-17.0.00_0" slope="0.000"/>
        <vehicle id="1" x="823.940" y="12090.342" angle="0.000" type="vtypeauto" speed="2.210" pos="12090.342" lane="-17.0.00_0" slope="0.000"/>
        <vehicle id="10" x="816.640" y="12095.555" angle="0.000" type="vtypeauto" speed="2.967" pos="12095.555" lane="-17.0.00_2" slope="0.000"/>
        <vehicle id="11" x="816.640" y="12089.440" angle="0.000" type="vtypeauto" speed="2.210" pos="12089.440" lane="-17.0.00_2" slope="0.000"/>
        <vehicle id="2" x="823.940" y="12084.349" angle="0.000" type="vtypeauto" speed="1.976" pos="12084.349" lane="-17.0.00_0" slope="0.000"/>
        <vehicle id="3" x="823.940" y="12078.378" angle="0.000" type="vtypeauto" speed="1.955" pos="12078.378" lane="-17.0.00_0" slope="0.000"/>
        <vehicle id="4" x="823.940" y="12072.410" angle="0.000" type="vtypeauto" speed="1.947" pos="12072.410" lane="-17.0.00_0" slope="0.000"/>
        <vehicle id="5" x="820.290" y="12101.458" angle="0.000" type="vtypeauto" speed="2.967" pos="12101.458" lane="-17.0.00_1" slope="0.000"/>
        <vehicle id="6" x="820.290" y="12095.342" angle="0.000" type="vtypeauto" speed="2.212" pos="12095.342" lane="-17.0.00_1" slope="0.000"/>
        <vehicle id="7" x="820.290" y="12089.349" angle="0.000" type="vtypeauto" speed="1.976" pos="12089.349" lane="-17.0.00_1" slope="0.000"/>
        <vehicle id="8" x="820.290" y="12083.378" angle="0.000" type="vtypeauto" speed="1.955" pos="12083.378" lane="-17.0.00_1" slope="0.000"/>
        <vehicle id="ego" x="820.000" y="12075.000" angle="0.000" type="passenger" speed="1.641" pos="12075.000" lane="-17.0.00_1" slope="0.000"/>
    </timestep>
    <timestep time="0.238">
        <vehicle id="0" x="823.940" y="12096.510" angle="0.000" type="vtypeauto" speed="3.111" pos="12096.510" lane="-17.0.00_0" slope="0.000"/>
        <vehicle id="1" x="823.940" y="12090.379" angle="0.000" type="vtypeauto" speed="2.159" pos="12090.379" lane="-17.0.00_0" slope="0.000"/>
        <vehicle id="10" x="816.640" y="12095.608" angle="0.000" type="vtypeauto" speed="3.112" pos="12095.608" lane="-17.0.00_2" slope="0.000"/>
        <vehicle id="11" x="816.640" y="12089.477" angle="0.000" type="vtypeauto" speed="2.159" pos="12089.477" lane="-17.0.00_2" slope="0.000"/>
        <vehicle id="2" x="823.940" y="12084.383" angle="0.000" type="vtypeauto" speed="1.987" pos="12084.383" lane="-17.0.00_0" slope="0.000"/>
        <vehicle id="3" x="823.940" y="12078.411" angle="0.000" type="vtypeauto" speed="1.942" pos="12078.411" lane="-17.0.00_0" slope="0.000"/>
        <vehicle id="4" x="823.940" y="12072.443" angle="0.000" type="vtypeauto" speed="1.939" pos="12072.443" lane="-17.0.00_0" slope="0.000"/>
        <vehicle id="5" x="820.290" y="12101.511" angle="0.000" type="vtypeauto" speed="3.119" pos="12101.511" lane="-17.0.00_1" slope="0.000"/>
        <vehicle id="6" x="820.290" y="12095.379" angle="0.000" type="vtypeauto" speed="2.160" pos="12095.379" lane="-17.0.00_1" slope="0.000"/>
        <vehicle id="7" x="820.290" y="12089.383" angle="0.000" type="vtypeauto" speed="1.987" pos="12089.383" lane="-17.0.00_1" slope="0.000"/>
        <vehicle id="8" x="820.290" y="12083.411" angle="0.000" type="vtypeauto" speed="1.942" pos="12083.411" lane="-17.0.00_1" slope="0.000"/>
        <vehicle id="ego" x="820.000" y="12075.000" angle="0.000" type="passenger" speed="1.539" pos="12075.000" lane="-17.0.00_1" slope="0.000"/>
    </timestep>
    <timestep time="0.255">
        <vehicle id="0" x="823.940" y="12096.560" angle="0.000" type="vtypeauto" speed="2.967" pos="12096.560" lane="-17.0.00_0" slope="0.000"/>
        <vehicle id="1" x="823.940" y="12090.416" angle="0.000" type="vtypeauto" speed="2.201" pos="12090.416" lane="-17.0.00_0" slope="0.000"/>
        <vehicle id="10" x="816.640" y="12095.658" angle="0.000" type="vtypeauto" speed="2.967" pos="12095.658" lane="-17.0.00_2" slope="0.000"/>
        <vehicle id="11" x="816.640" y="12089.514" angle="0.000" type="vtypeauto" speed="2.201" pos="12089.514" lane="-17.0.00_2" slope="0.000"/>
        <vehicle id="2" x="823.940" y="12084.416" angle="0.000" type="vtypeauto" speed="1.967" pos="12084.416" lane="-17.0.00_0" slope="0.000"/>
        <vehicle id="3" x="823.940" y="12078.444" angle="0.000" type="vtypeauto" speed="1.944" pos="12078.444" lane="-17.0.00_0" slope="0.000"/>
        <vehicle id="4" x="823.940" y="12072.476" angle="0.000" type="vtypeauto" speed="1.937" pos="12072.476" lane="-17.0.00_0" slope="0.000"/>
        <vehicle id="5" x="820.290" y="12101.561" angle="0.000" type="vtypeauto" speed="2.967" pos="12101.561" lane="-17.0.00_1" slope="0.000"/>
        <vehicle id="6" x="820.290" y="12095.416" angle="0.000" type="vtypeauto" speed="2.203" pos="12095.416" lane="-17.0.00_1" slope="0.000"/>
        <vehicle id="7" x="820.290" y="12089.416" angle="0.000" type="vtypeauto" speed="1.967" pos="12089.416" lane="-17.0.00_1" slope="0.000"/>
        <vehicle id="8" x="820.290" y="12083.444" angle="0.000" type="vtypeauto" speed="1.944" pos="12083.444" lane="-17.0.00_1" slope="0.000"/>
        <vehicle id="ego" x="820.000" y="12075.000" angle="0.000" type="passenger" speed="1.437" pos="12075.000" lane="-17.0.00_1" slope="0.000"/>
    </timestep>
    <timestep time="0.272">
        <vehicle id="0" x="823.940" y="12096.613" angle="0.000" type="vtypeauto" speed="3.111" pos="12096.613" lane="-17.0.00_0" slope="0.000"/>
        <vehicle id="1" x="823.940" y="12090.453" angle="0.000" type="vtypeauto" speed="2.152" pos="12090.453" lane="-17.0.00_0" slope="0.000"/>
        <vehicle id="10" x="816.640" y="12095.711" angle="0.000" type="vtypeauto" speed="3.112" pos="12095.711" lane="-17.0.00_2" slope="0.000"/>
        <vehicle id="11" x="816.640" y="12089.551" angle="0.000" type="vtypeauto" speed="2.152" pos="12089.551" lane="-17.0.00_2" slope="0.000"/>
        <vehicle id="2" x="823.940" y="12084.450" angle="0.000" type="vtypeauto" speed="1.977" pos="12084.450" lane="-17.0.00_0" slope="0.000"/>
        <vehicle id="3" x="823.940" y="12078.477" angle="0.000" type="vtypeauto" speed="1.933" pos="12078.477" lane="-17.0.00_0" slope="0.000"/>
        <vehicle id="4" x="823.940" y="12072.509" angle="0.000" type="vtypeauto" speed="1.929" pos="12072.509" lane="-17.0.00_0" slope="0.000"/>
        <vehicle id="5" x="820.290" y="12101.614" angle="0.000" type="vtypeauto" speed="3.119" pos="12101.614" lane="-17.0.00_1" slope="0.000"/>
        <vehicle id="6" x="820.290" y="12095.453" angle="0.000" type="vtypeauto" speed="2.152" pos="12095.453" lane="-17.0.00_1" slope="0.000"/>
        <vehicle id="7" x="820.290" y="12089.450" angle="0.000" type="vtypeauto" speed="1.978" pos="12089.450" lane="-17.0.00_1" slope="0.000"/>
        <vehicle id="8" x="820.290" y="12083.477" angle="0.000" type="vtypeauto" speed="1.933" pos="12083.477" lane="-17.0.00_1" slope="0.000"/>
        <vehicle id="ego" x="820.000" y="12075.000" angle="0.000" type="passenger" speed="1.335" pos="12075.000" lane="-17.0.00_1" slope="0.000"/>
    </timestep>
    <timestep time="0.289">
        <vehicle id="0" x="823.940" y="12096.664" angle="0.000" type="vtypeauto" speed="2.967" pos="12096.664" lane="-17.0.00_0" slope="0.000"/>