<?xml version="1.0" encoding="UTF-8"?>

<!-- generated on 2022-10-06 15:22:53 by Eclipse SUMO GUI Version 1.14.1
<configuration xmlns:xsi="http://www.w3.org/2001/XMLSchema-instance" xsi:noNamespaceSchemaLocation="http://sumo.dlr.de/xsd/sumoConfiguration.xsd">

    <input>
        <net-file value="test.net.xml"/>
        <route-files value="test.rou.xml"/>
    </input>

    <output>
        <fcd-output value="./15miles_results.fcd.xml"/>
    </output>

    <time>
        <begin value="0"/>
        <end value="54470"/>
        <step-length value="0.0166666666666667"/>
    </time>

    <traci_server>
        <remote-port value="61444"/>
    </traci_server>

    <gui_only>
        <gui-settings-file value="freeway.gui.xml"/>
        <start value="true"/>
    </gui_only>

</configuration>
-->

<fcd-export xmlns:xsi="http://www.w3.org/2001/XMLSchema-instance" xsi:noNamespaceSchemaLocation="http://sumo.dlr.de/xsd/fcd_file.xsd">
    <timestep time="0.000">
        <vehicle id="ego" x="1230.006" y="435.712" angle="0.000" type="DEFAULT_VEHTYPE" speed="2.967" pos="60.815" lane="2_0" slope="0.000"/>
    </timestep>
    <timestep time="0.017">
        <vehicle id="ego" x="1230.006" y="435.712" angle="0.000" type="DEFAULT_VEHTYPE" speed="2.891" pos="60.815" lane="2_0" slope="0.000"/>
    </timestep>
    <timestep time="0.034">
        <vehicle id="ego" x="1230.006" y="435.712" angle="0.000" type="DEFAULT_VEHTYPE" speed="2.814" pos="60.815" lane="2_0" slope="0.000"/>
    </timestep>
    <timestep time="0.051">
        <vehicle id="ego" x="1230.006" y="435.712" angle="0.000" type="DEFAULT_VEHTYPE" speed="2.738" pos="60.815" lane="2_0" slope="0.000"/>
    </timestep>
    <timestep time="0.068">
        <vehicle id="ego" x="1230.006" y="435.712" angle="0.000" type="DEFAULT_VEHTYPE" speed="2.661" pos="60.815" lane="2_0" slope="0.000"/>
    </timestep>
    <timestep time="0.085">
        <vehicle id="ego" x="1230.006" y="435.712" angle="0.000" type="DEFAULT_VEHTYPE" speed="2.585" pos="60.815" lane="2_0" slope="0.000"/>
    </timestep>
    <timestep time="0.102">
        <vehicle id="ego" x="1230.006" y="435.712" angle="0.000" type="DEFAULT_VEHTYPE" speed="2.508" pos="60.815" lane="2_0" slope="0.000"/>
    </timestep>
    <timestep time="0.119">
        <vehicle id="ego" x="1230.006" y="435.712" angle="0.000" type="DEFAULT_VEHTYPE" speed="2.432" pos="60.815" lane="2_0" slope="0.000"/>
    </timestep>
    <timestep time="0.136">
        <vehicle id="ego" x="1230.006" y="435.712" angle="0.000" type="DEFAULT_VEHTYPE" speed="2.355" pos="60.815" lane="2_0" slope="0.000"/>
    </timestep>
    <timestep time="0.153">
        <vehicle id="ego" x="1230.006" y="435.712" angle="0.000" type="DEFAULT_VEHTYPE" speed="2.279" pos="60.815" lane="2_0" slope="0.000"/>
    </timestep>
    <timestep time="0.170">
        <vehicle id="ego" x="1230.006" y="435.712" angle="0.000" type="DEFAULT_VEHTYPE" speed="2.202" pos="60.815" lane="2_0" slope="0.000"/>
    </timestep>
    <timestep time="0.187">
        <vehicle id="ego" x="1230.006" y="435.712" angle="0.000" type="DEFAULT_VEHTYPE" speed="2.126" pos="60.815" lane="2_0" slope="0.000"/>
    </timestep>
    <timestep time="0.204">
        <vehicle id="ego" x="1230.006" y="435.712" angle="0.000" type="DEFAULT_VEHTYPE" speed="2.049" pos="60.815" lane="2_0" slope="0.000"/>
    </timestep>
    <timestep time="0.221">
        <vehicle id="ego" x="1230.006" y="435.712" angle="0.000" type="DEFAULT_VEHTYPE" speed="1.973" pos="60.815" lane="2_0" slope="0.000"/>
    </timestep>
    <timestep time="0.238">
        <vehicle id="ego" x="1230.006" y="435.712" angle="0.000" type="DEFAULT_VEHTYPE" speed="1.896" pos="60.815" lane="2_0" slope="0.000"/>
    </timestep>
    <timestep time="0.255">
        <vehicle id="ego" x="1230.006" y="435.712" angle="0.000" type="DEFAULT_VEHTYPE" speed="1.820" pos="60.815" lane="2_0" slope="0.000"/>
    </timestep>
    <timestep time="0.272">
        <vehicle id="ego" x="1230.006" y="435.712" angle="0.000" type="DEFAULT_VEHTYPE" speed="1.743" pos="60.815" lane="2_0" slope="0.000"/>
    </timestep>
    <timestep time="0.289">
        <vehicle id="ego" x="1230.006" y="435.712" angle="0.000" type="DEFAULT_VEHTYPE" speed="1.667" pos="60.815" lane="2_0" slope="0.000"/>
    </timestep>
    <timestep time="0.306">
        <vehicle id="ego" x="1230.006" y="435.712" angle="0.000" type="DEFAULT_VEHTYPE" speed="1.590" pos="60.815" lane="2_0" slope="0.000"/>
    </timestep>
    <timestep time="0.323">
        <vehicle id="ego" x="1230.006" y="435.712" angle="0.000" type="DEFAULT_VEHTYPE" speed="1.514" pos="60.815" lane="2_0" slope="0.000"/>
    </timestep>
    <timestep time="0.340">
        <vehicle id="ego" x="1230.006" y="435.712" angle="0.000" type="DEFAULT_VEHTYPE" speed="1.437" pos="60.815" lane="2_0" slope="0.000"/>
    </timestep>
    <timestep time="0.357">
        <vehicle id="ego" x="1230.006" y="435.712" angle="0.000" type="DEFAULT_VEHTYPE" speed="1.361" pos="60.815" lane="2_0" slope="0.000"/>
    </timestep>
    <timestep time="0.374">
        <vehicle id="ego" x="1230.006" y="435.712" angle="0.000" type="DEFAULT_VEHTYPE" speed="1.284" pos="60.815" lane="2_0" slope="0.000"/>
    </timestep>
    <timestep time="0.391">
        <vehicle id="ego" x="1230.006" y="435.712" angle="0.000" type="DEFAULT_VEHTYPE" speed="1.208" pos="60.815" lane="2_0" slope="0.000"/>
    </timestep>
    <timestep time="0.408">
        <vehicle id="ego" x="1230.006" y="435.712" angle="0.000" type="DEFAULT_VEHTYPE" speed="1.131" pos="60.815" lane="2_0" slope="0.000"/>
    </timestep>
    <timestep time="0.425">
        <vehicle id="ego" x="1230.006" y="435.712" angle="0.000" type="DEFAULT_VEHTYPE" speed="1.055" pos="60.815" lane="2_0" slope="0.000"/>
    </timestep>
    <timestep time="0.442">
        <vehicle id="ego" x="1230.006" y="435.712" angle="0.000" type="DEFAULT_VEHTYPE" speed="1.000" pos="60.815" lane="2_0" slope="0.000"/>
    </timestep>
    <timestep time="0.459">
        <vehicle id="ego" x="1230.006" y="435.712" angle="0.000" type="DEFAULT_VEHTYPE" speed="1.000" pos="60.815" lane="2_0" slope="0.000"/>
    </timestep>
    <timestep time="0.476">
        <vehicle id="ego" x="1230.006" y="435.712" angle="0.000" type="DEFAULT_VEHTYPE" speed="1.000" pos="60.815" lane="2_0" slope="0.000"/>
    </timestep>
    <timestep time="0.493">
        <vehicle id="ego" x="1230.006" y="435.712" angle="0.000" type="DEFAULT_VEHTYPE" speed="1.000" pos="60.815" lane="2_0" slope="0.000"/>
    </timestep>
    <timestep time="0.510">
        <vehicle id="ego" x="1230.006" y="435.712" angle="0.000" type="DEFAULT_VEHTYPE" speed="1.000" pos="60.815" lane="2_0" slope="0.000"/>
    </timestep>
    <timestep time="0.527">
        <vehicle id="ego" x="1230.006" y="435.712" angle="0.000" type="DEFAULT_VEHTYPE" speed="1.000" pos="60.815" lane="2_0" slope="0.000"/>
    </timestep>
    <timestep time="0.544">
        <vehicle id="ego" x="1230.006" y="435.712" angle="0.000" type="DEFAULT_VEHTYPE" speed="1.000" pos="60.815" lane="2_0" slope="0.000"/>
    </timestep>
    <timestep time="0.561">
        <vehicle id="ego" x="1230.006" y="435.712" angle="0.000" type="DEFAULT_VEHTYPE" speed="1.000" pos="60.815" lane="2_0" slope="0.000"/>
    </timestep>
    <timestep time="0.578">
        <vehicle id="ego" x="1230.006" y="435.712" angle="0.000" type="DEFAULT_VEHTYPE" speed="1.000" pos="60.815" lane="2_0" slope="0.000"/>
    </timestep>
    <timestep time="0.595">
        <vehicle id="ego" x="1230.006" y="435.712" angle="0.000" type="DEFAULT_VEHTYPE" speed="1.000" pos="60.815" lane="2_0" slope="0.000"/>
    </timestep>
    <timestep time="0.612">
        <vehicle id="ego" x="1230.006" y="435.712" angle="0.000" type="DEFAULT_VEHTYPE" speed="1.000" pos="60.815" lane="2_0" slope="0.000"/>
    </timestep>
    <timestep time="0.629">
        <vehicle id="ego" x="1230.006" y="435.712" angle="0.000" type="DEFAULT_VEHTYPE" speed="1.000" pos="60.815" lane="2_0" slope="0.000"/>
    </timestep>
    <timestep time="0.646">
        <vehicle id="ego" x="1230.006" y="435.712" angle="0.000" type="DEFAULT_VEHTYPE" speed="1.000" pos="60.815" lane="2_0" slope="0.000"/>
    </timestep>
    <timestep time="0.663">
        <vehicle id="ego" x="1230.006" y="435.712" angle="0.000" type="DEFAULT_VEHTYPE" speed="1.000" pos="60.815" lane="2_0" slope="0.000"/>
    </timestep>
    <timestep time="0.680">
        <vehicle id="ego" x="1230.006" y="435.712" angle="0.000" type="DEFAULT_VEHTYPE" speed="1.000" pos="60.815" lane="2_0" slope="0.000"/>
    </timestep>
    <timestep time="0.697">
        <vehicle id="ego" x="1230.006" y="435.712" angle="0.000" type="DEFAULT_VEHTYPE" speed="1.000" pos="60.815" lane="2_0" slope="0.000"/>
    </timestep>
    <timestep time="0.714">
        <vehicle id="ego" x="1230.006" y="435.712" angle="0.000" type="DEFAULT_VEHTYPE" speed="1.000" pos="60.815" lane="2_0" slope="0.000"/>
    </timestep>
    <timestep time="0.731">
        <vehicle id="ego" x="1230.006" y="435.712" angle="0.000" type="DEFAULT_VEHTYPE" speed="1.000" pos="60.815" lane="2_0" slope="0.000"/>
    </timestep>
    <timestep time="0.748">
        <vehicle id="ego" x="1230.006" y="435.712" angle="0.000" type="DEFAULT_VEHTYPE" speed="1.000" pos="60.815" lane="2_0" slope="0.000"/>
    </timestep>
    <timestep time="0.765">
        <vehicle id="ego" x="1230.006" y="435.712" angle="0.000" type="DEFAULT_VEHTYPE" speed="1.000" pos="60.815" lane="2_0" slope="0.000"/>
    </timestep>
    <timestep time="0.782">
        <vehicle id="ego" x="1230.006" y="435.712" angle="0.000" type="DEFAULT_VEHTYPE" speed="1.000" pos="60.815" lane="2_0" slope="0.000"/>
    </timestep>
    <timestep time="0.799">
        <vehicle id="ego" x="1230.006" y="435.712" angle="0.000" type="DEFAULT_VEHTYPE" speed="1.000" pos="60.815" lane="2_0" slope="0.000"/>
    </timestep>
    <timestep time="0.816">
        <vehicle id="ego" x="1230.006" y="435.712" angle="0.000" type="DEFAULT_VEHTYPE" speed="1.000" pos="60.815" lane="2_0" slope="0.000"/>
    </timestep>
    <timestep time="0.833">
        <vehicle id="ego" x="1230.006" y="435.712" angle="0.000" type="DEFAULT_VEHTYPE" speed="1.000" pos="60.815" lane="2_0" slope="0.000"/>
    </timestep>
    <timestep time="0.850">
        <vehicle id="ego" x="1230.006" y="435.712" angle="0.000" type="DEFAULT_VEHTYPE" speed="1.000" pos="60.815" lane="2_0" slope="0.000"/>
    </timestep>
    <timestep time="0.867">
        <vehicle id="ego" x="1230.006" y="435.712" angle="0.000" type="DEFAULT_VEHTYPE" speed="1.000" pos="60.815" lane="2_0" slope="0.000"/>
    </timestep>
    <timestep time="0.884">
        <vehicle id="ego" x="1230.006" y="435.712" angle="0.000" type="DEFAULT_VEHTYPE" speed="1.000" pos="60.815" lane="2_0" slope="0.000"/>
    </timestep>
    <timestep time="0.901">
        <vehicle id="ego" x="1230.006" y="435.712" angle="0.000" type="DEFAULT_VEHTYPE" speed="1.000" pos="60.815" lane="2_0" slope="0.000"/>
    </timestep>
    <timestep time="0.918">
        <vehicle id="ego" x="1230.006" y="435.712" angle="0.000" type="DEFAULT_VEHTYPE" speed="1.000" pos="60.815" lane="2_0" slope="0.000"/>
    </timestep>
    <timestep time="0.935">
        <vehicle id="ego" x="1230.006" y="435.712" angle="0.000" type="DEFAULT_VEHTYPE" speed="1.000" pos="60.815" lane="2_0" slope="0.000"/>
    </timestep>
    <timestep time="0.952">
        <vehicle id="ego" x="1230.006" y="435.712" angle="0.000" type="DEFAULT_VEHTYPE" speed="1.000" pos="60.815" lane="2_0" slope="0.000"/>
    </timestep>
    <timestep time="0.969">
        <vehicle id="ego" x="1230.006" y="435.712" angle="0.000" type="DEFAULT_VEHTYPE" speed="1.000" pos="60.815" lane="2_0" slope="0.000"/>
    </timestep>
    <timestep time="0.986">
        <vehicle id="ego" x="1230.006" y="435.712" angle="0.000" type="DEFAULT_VEHTYPE" speed="1.000" pos="60.815" lane="2_0" slope="0.000"/>
    </timestep>
    <timestep time="1.003">
        <vehicle id="ego" x="1230.006" y="435.712" angle="0.000" type="DEFAULT_VEHTYPE" speed="1.000" pos="60.815" lane="2_0" slope="0.000"/>
    </timestep>
    <timestep time="1.020">
        <vehicle id="ego" x="1230.006" y="435.712" angle="0.000" type="DEFAULT_VEHTYPE" speed="1.000" pos="60.815" lane="2_0" slope="0.000"/>
    </timestep>
    <timestep time="1.037">
        <vehicle id="ego" x="1230.006" y="435.712" angle="0.000" type="DEFAULT_VEHTYPE" speed="1.000" pos="60.815" lane="2_0" slope="0.000"/>
    </timestep>
    <timestep time="1.054">
        <vehicle id="ego" x="1230.006" y="435.712" angle="0.000" type="DEFAULT_VEHTYPE" speed="1.000" pos="60.815" lane="2_0" slope="0.000"/>
    </timestep>
    <timestep time="1.071">
        <vehicle id="ego" x="1230.006" y="435.712" angle="0.000" type="DEFAULT_VEHTYPE" speed="1.000" pos="60.815" lane="2_0" slope="0.000"/>
    </timestep>
    <timestep time="1.088">
        <vehicle id="ego" x="1230.006" y="435.712" angle="0.000" type="DEFAULT_VEHTYPE" speed="1.000" pos="60.815" lane="2_0" slope="0.000"/>
    </timestep>
    <timestep time="1.105">
        <vehicle id="ego" x="1230.006" y="435.712" angle="0.000" type="DEFAULT_VEHTYPE" speed="1.000" pos="60.815" lane="2_0" slope="0.000"/>
    </timestep>
    <timestep time="1.122">
        <vehicle id="ego" x="1230.006" y="435.712" angle="0.000" type="DEFAULT_VEHTYPE" speed="1.000" pos="60.815" lane="2_0" slope="0.000"/>
    </timestep>
    <timestep time="1.139">
        <vehicle id="ego" x="1230.006" y="435.712" angle="0.000" type="DEFAULT_VEHTYPE" speed="1.000" pos="60.815" lane="2_0" slope="0.000"/>
    </timestep>
    <timestep time="1.156">
        <vehicle id="ego" x="1230.006" y="435.712" angle="0.000" type="DEFAULT_VEHTYPE" speed="1.000" pos="60.815" lane="2_0" slope="0.000"/>
    </timestep>
    <timestep time="1.173">
        <vehicle id="ego" x="1230.006" y="435.712" angle="0.000" type="DEFAULT_VEHTYPE" speed="1.000" pos="60.815" lane="2_0" slope="0.000"/>
    </timestep>
    <timestep time="1.190">
        <vehicle id="ego" x="1230.006" y="435.712" angle="0.000" type="DEFAULT_VEHTYPE" speed="1.000" pos="60.815" lane="2_0" slope="0.000"/>
    </timestep>
    <timestep time="1.207">
        <vehicle id="ego" x="1230.006" y="435.712" angle="0.000" type="DEFAULT_VEHTYPE" speed="1.000" pos="60.815" lane="2_0" slope="0.000"/>
    </timestep>
    <timestep time="1.224">
        <vehicle id="ego" x="1230.006" y="435.712" angle="0.000" type="DEFAULT_VEHTYPE" speed="1.000" pos="60.815" lane="2_0" slope="0.000"/>
    </timestep>
    <timestep time="1.241">
        <vehicle id="ego" x="1230.006" y="435.712" angle="0.000" type="DEFAULT_VEHTYPE" speed="1.000" pos="60.815" lane="2_0" slope="0.000"/>
    </timestep>
    <timestep time="1.258">
        <vehicle id="ego" x="1230.006" y="435.712" angle="0.000" type="DEFAULT_VEHTYPE" speed="1.000" pos="60.815" lane="2_0" slope="0.000"/>
    </timestep>
    <timestep time="1.275">
        <vehicle id="ego" x="1230.006" y="435.712" angle="0.000" type="DEFAULT_VEHTYPE" speed="1.000" pos="60.815" lane="2_0" slope="0.000"/>
    </timestep>
    <timestep time="1.292">
        <vehicle id="ego" x="1230.006" y="435.712" angle="0.000" type="DEFAULT_VEHTYPE" speed="1.000" pos="60.815" lane="2_0" slope="0.000"/>
    </timestep>
    <timestep time="1.309">
        <vehicle id="ego" x="1230.006" y="435.712" angle="0.000" type="DEFAULT_VEHTYPE" speed="1.000" pos="60.815" lane="2_0" slope="0.000"/>
    </timestep>
    <timestep time="1.326">
        <vehicle id="ego" x="1230.006" y="435.712" angle="0.000" type="DEFAULT_VEHTYPE" speed="1.000" pos="60.815" lane="2_0" slope="0.000"/>
    </timestep>
    <timestep time="1.343">
        <vehicle id="ego" x="1230.006" y="435.712" angle="0.000" type="DEFAULT_VEHTYPE" speed="1.000" pos="60.815" lane="2_0" slope="0.000"/>
    </timestep>
    <timestep time="1.360">
        <vehicle id="ego" x="1230.006" y="435.712" angle="0.000" type="DEFAULT_VEHTYPE" speed="1.000" pos="60.815" lane="2_0" slope="0.000"/>
    </timestep>
    <timestep time="1.377">
        <vehicle id="ego" x="1230.006" y="435.712" angle="0.000" type="DEFAULT_VEHTYPE" speed="1.000" pos="60.815" lane="2_0" slope="0.000"/>
    </timestep>
    <timestep time="1.394">
        <vehicle id="ego" x="1230.006" y="435.712" angle="0.000" type="DEFAULT_VEHTYPE" speed="1.000" pos="60.815" lane="2_0" slope="0.000"/>
    </timestep>
    <timestep time="1.411">
        <vehicle id="ego" x="1230.006" y="435.712" angle="0.000" type="DEFAULT_VEHTYPE" speed="1.000" pos="60.815" lane="2_0" slope="0.000"/>
    </timestep>
    <timestep time="1.428">
        <vehicle id="ego" x="1230.006" y="435.712" angle="0.000" type="DEFAULT_VEHTYPE" speed="1.000" pos="60.815" lane="2_0" slope="0.000"/>
    </timestep>
    <timestep time="1.445">
        <vehicle id="ego" x="1230.006" y="435.712" angle="0.000" type="DEFAULT_VEHTYPE" speed="1.000" pos="60.815" lane="2_0" slope="0.000"/>
    </timestep>
    <timestep time="1.462">
        <vehicle id="ego" x="1230.006" y="435.712" angle="0.000" type="DEFAULT_VEHTYPE" speed="1.000" pos="60.815" lane="2_0" slope="0.000"/>
    </timestep>
    <timestep time="1.479">
        <vehicle id="ego" x="1230.006" y="435.712" angle="0.000" type="DEFAULT_VEHTYPE" speed="1.000" pos="60.815" lane="2_0" slope="0.000"/>
    </timestep>
    <timestep time="1.496">
        <vehicle id="ego" x="1230.006" y="435.712" angle="0.000" type="DEFAULT_VEHTYPE" speed="1.000" pos="60.815" lane="2_0" slope="0.000"/>
    </timestep>
    <timestep time="1.513">
        <vehicle id="ego" x="1230.006" y="435.712" angle="0.000" type="DEFAULT_VEHTYPE" speed="1.000" pos="60.815" lane="2_0" slope="0.000"/>
    </timestep>
    <timestep time="1.530">
        <vehicle id="ego" x="1230.006" y="435.712" angle="0.000" type="DEFAULT_VEHTYPE" speed="1.000" pos="60.815" lane="2_0" slope="0.000"/>
    </timestep>
    <timestep time="1.547">
        <vehicle id="ego" x="1230.006" y="435.712" angle="0.000" type="DEFAULT_VEHTYPE" speed="1.000" pos="60.815" lane="2_0" slope="0.000"/>
    </timestep>
    <timestep time="1.564">
        <vehicle id="ego" x="1230.006" y="435.712" angle="0.000" type="DEFAULT_VEHTYPE" speed="1.000" pos="60.815" lane="2_0" slope="0.000"/>
    </timestep>
    <timestep time="1.581">
        <vehicle id="ego" x="1230.006" y="435.712" angle="0.000" type="DEFAULT_VEHTYPE" speed="1.000" pos="60.815" lane="2_0" slope="0.000"/>
    </timestep>
    <timestep time="1.598">
        <vehicle id="ego" x="1230.006" y="435.712" angle="0.000" type="DEFAULT_VEHTYPE" speed="1.000" pos="60.815" lane="2_0" slope="0.000"/>
    </timestep>
    <timestep time="1.615">
        <vehicle id="ego" x="1230.006" y="435.712" angle="0.000" type="DEFAULT_VEHTYPE" speed="1.000" pos="60.815" lane="2_0" slope="0.000"/>
    </timestep>
    <timestep time="1.632">
        <vehicle id="ego" x="1230.006" y="435.712" angle="0.000" type="DEFAULT_VEHTYPE" speed="1.000" pos="60.815" lane="2_0" slope="0.000"/>
    </timestep>
    <timestep time="1.649">
        <vehicle id="ego" x="1230.006" y="435.712" angle="0.000" type="DEFAULT_VEHTYPE" speed="1.000" pos="60.815" lane="2_0" slope="0.000"/>
    </timestep>
    <timestep time="1.666">
        <vehicle id="ego" x="1230.006" y="435.712" angle="0.000" type="DEFAULT_VEHTYPE" speed="1.000" pos="60.815" lane="2_0" slope="0.000"/>
    </timestep>
    <timestep time="1.683">
        <vehicle id="ego" x="1230.006" y="435.712" angle="0.000" type="DEFAULT_VEHTYPE" speed="1.000" pos="60.815" lane="2_0" slope="0.000"/>
    </timestep>
    <timestep time="1.700">
        <vehicle id="ego" x="1230.006" y="435.712" angle="0.000" type="DEFAULT_VEHTYPE" speed="1.000" pos="60.815" lane="2_0" slope="0.000"/>
    </timestep>
    <timestep time="1.717">
        <vehicle id="ego" x="1230.006" y="435.712" angle="0.000" type="DEFAULT_VEHTYPE" speed="1.000" pos="60.815" lane="2_0" slope="0.000"/>
    </timestep>
    <timestep time="1.734">
        <vehicle id="ego" x="1230.006" y="435.712" angle="0.000" type="DEFAULT_VEHTYPE" speed="1.000" pos="60.815" lane="2_0" slope="0.000"/>
    </timestep>
    <timestep time="1.751">
        <vehicle id="ego" x="1230.006" y="435.712" angle="0.000" type="DEFAULT_VEHTYPE" speed="1.000" pos="60.815" lane="2_0" slope="0.000"/>
    </timestep>
    <timestep time="1.768">
        <vehicle id="ego" x="1230.006" y="435.712" angle="0.000" type="DEFAULT_VEHTYPE" speed="1.000" pos="60.815" lane="2_0" slope="0.000"/>
    </timestep>
    <timestep time="1.785">
        <vehicle id="ego" x="1230.006" y="435.712" angle="0.000" type="DEFAULT_VEHTYPE" speed="1.000" pos="60.815" lane="2_0" slope="0.000"/>
    </timestep>
    <timestep time="1.802">
        <vehicle id="ego" x="1230.006" y="435.712" angle="0.000" type="DEFAULT_VEHTYPE" speed="1.000" pos="60.815" lane="2_0" slope="0.000"/>
    </timestep>
    <timestep time="1.819">
        <vehicle id="ego" x="1230.006" y="435.712" angle="0.000" type="DEFAULT_VEHTYPE" speed="1.000" pos="60.815" lane="2_0" slope="0.000"/>
    </timestep>
    <timestep time="1.836">
        <vehicle id="ego" x="1230.006" y="435.712" angle="0.000" type="DEFAULT_VEHTYPE" speed="1.000" pos="60.815" lane="2_0" slope="0.000"/>
    </timestep>
    <timestep time="1.853">
        <vehicle id="ego" x="1230.006" y="435.712" angle="0.000" type="DEFAULT_VEHTYPE" speed="1.000" pos="60.815" lane="2_0" slope="0.000"/>
    </timestep>
    <timestep time="1.870">
        <vehicle id="ego" x="1230.006" y="435.712" angle="0.000" type="DEFAULT_VEHTYPE" speed="1.000" pos="60.815" lane="2_0" slope="0.000"/>
    </timestep>
    <timestep time="1.887">
        <vehicle id="ego" x="1230.006" y="435.712" angle="0.000" type="DEFAULT_VEHTYPE" speed="1.000" pos="60.815" lane="2_0" slope="0.000"/>
    </timestep>
    <timestep time="1.904">
        <vehicle id="ego" x="1230.006" y="435.712" angle="0.000" type="DEFAULT_VEHTYPE" speed="1.000" pos="60.815" lane="2_0" slope="0.000"/>
    </timestep>
    <timestep time="1.921">
        <vehicle id="ego" x="1230.006" y="435.712" angle="0.000" type="DEFAULT_VEHTYPE" speed="1.000" pos="60.815" lane="2_0" slope="0.000"/>
    </timestep>
    <timestep time="1.938">
        <vehicle id="ego" x="1230.006" y="435.712" angle="0.000" type="DEFAULT_VEHTYPE" speed="1.000" pos="60.815" lane="2_0" slope="0.000"/>
    </timestep>
    <timestep time="1.955">
        <vehicle id="ego" x="1230.006" y="435.712" angle="0.000" type="DEFAULT_VEHTYPE" speed="1.000" pos="60.815" lane="2_0" slope="0.000"/>
    </timestep>
    <timestep time="1.972">
        <vehicle id="ego" x="1230.006" y="435.712" angle="0.000" type="DEFAULT_VEHTYPE" speed="1.000" pos="60.815" lane="2_0" slope="0.000"/>
    </timestep>
    <timestep time="1.989">
        <vehicle id="ego" x="1230.006" y="435.712" angle="0.000" type="DEFAULT_VEHTYPE" speed="1.000" pos="60.815" lane="2_0" slope="0.000"/>
    </timestep>
    <timestep time="2.006">
        <vehicle id="ego" x="1230.006" y="435.712" angle="0.000" type="DEFAULT_VEHTYPE" speed="1.000" pos="60.815" lane="2_0" slope="0.000"/>
    </timestep>
    <timestep time="2.023">
        <vehicle id="ego" x="1230.006" y="435.712" angle="0.000" type="DEFAULT_VEHTYPE" speed="1.000" pos="60.815" lane="2_0" slope="0.000"/>
    </timestep>
    <timestep time="2.040">
        <vehicle id="ego" x="1230.006" y="435.712" angle="0.000" type="DEFAULT_VEHTYPE" speed="1.000" pos="60.815" lane="2_0" slope="0.000"/>
    </timestep>
    <timestep time="2.057">
        <vehicle id="ego" x="1230.006" y="435.712" angle="0.000" type="DEFAULT_VEHTYPE" speed="1.000" pos="60.815" lane="2_0" slope="0.000"/>
    </timestep>
    <timestep time="2.074">
        <vehicle id="ego" x="1230.006" y="435.712" angle="0.000" type="DEFAULT_VEHTYPE" speed="1.000" pos="60.815" lane="2_0" slope="0.000"/>
    </timestep>
    <timestep time="2.091">
        <vehicle id="ego" x="1230.006" y="435.712" angle="0.000" type="DEFAULT_VEHTYPE" speed="1.000" pos="60.815" lane="2_0" slope="0.000"/>
    </timestep>
    <timestep time="2.108">
        <vehicle id="ego" x="1230.006" y="435.712" angle="0.000" type="DEFAULT_VEHTYPE" speed="1.000" pos="60.815" lane="2_0" slope="0.000"/>
    </timestep>
    <timestep time="2.125">
        <vehicle id="ego" x="1230.006" y="435.712" angle="0.000" type="DEFAULT_VEHTYPE" speed="1.000" pos="60.815" lane="2_0" slope="0.000"/>
    </timestep>
    <timestep time="2.142">
        <vehicle id="ego" x="1230.006" y="435.712" angle="0.000" type="DEFAULT_VEHTYPE" speed="1.000" pos="60.815" lane="2_0" slope="0.000"/>
    </timestep>
    <timestep time="2.159">
        <vehicle id="ego" x="1230.006" y="435.712" angle="0.000" type="DEFAULT_VEHTYPE" speed="1.000" pos="60.815" lane="2_0" slope="0.000"/>
    </timestep>
    <timestep time="2.176">
        <vehicle id="ego" x="1230.006" y="435.712" angle="0.000" type="DEFAULT_VEHTYPE" speed="1.000" pos="60.815" lane="2_0" slope="0.000"/>
    </timestep>
    <timestep time="2.193">
        <vehicle id="ego" x="1230.006" y="435.712" angle="0.000" type="DEFAULT_VEHTYPE" speed="1.000" pos="60.815" lane="2_0" slope="0.000"/>
    </timestep>
    <timestep time="2.210">
        <vehicle id="ego" x="1230.006" y="435.712" angle="0.000" type="DEFAULT_VEHTYPE" speed="1.000" pos="60.815" lane="2_0" slope="0.000"/>
    </timestep>
    <timestep time="2.227">
        <vehicle id="ego" x="1230.006" y="435.712" angle="0.000" type="DEFAULT_VEHTYPE" speed="1.000" pos="60.815" lane="2_0" slope="0.000"/>
    </timestep>
    <timestep time="2.244">
        <vehicle id="ego" x="1230.006" y="435.712" angle="0.000" type="DEFAULT_VEHTYPE" speed="1.000" pos="60.815" lane="2_0" slope="0.000"/>
    </timestep>
    <timestep time="2.261">
        <vehicle id="ego" x="1230.006" y="435.712" angle="0.000" type="DEFAULT_VEHTYPE" speed="1.000" pos="60.815" lane="2_0" slope="0.000"/>
    </timestep>
    <timestep time="2.278">
        <vehicle id="ego" x="1230.006" y="435.712" angle="0.000" type="DEFAULT_VEHTYPE" speed="1.000" pos="60.815" lane="2_0" slope="0.000"/>
    </timestep>
    <timestep time="2.295">
        <vehicle id="ego" x="1230.006" y="435.712" angle="0.000" type="DEFAULT_VEHTYPE" speed="1.000" pos="60.815" lane="2_0" slope="0.000"/>
    </timestep>
    <timestep time="2.312">
        <vehicle id="ego" x="1230.006" y="435.712" angle="0.000" type="DEFAULT_VEHTYPE" speed="1.000" pos="60.815" lane="2_0" slope="0.000"/>
    </timestep>
    <timestep time="2.329">
        <vehicle id="ego" x="1230.006" y="435.712" angle="0.000" type="DEFAULT_VEHTYPE" speed="1.000" pos="60.815" lane="2_0" slope="0.000"/>
    </timestep>
    <timestep time="2.346">
        <vehicle id="ego" x="1230.006" y="435.712" angle="0.000" type="DEFAULT_VEHTYPE" speed="1.000" pos="60.815" lane="2_0" slope="0.000"/>
    </timestep>
    <timestep time="2.363">
        <vehicle id="ego" x="1230.006" y="435.712" angle="0.000" type="DEFAULT_VEHTYPE" speed="1.000" pos="60.815" lane="2_0" slope="0.000"/>
    </timestep>
    <timestep time="2.380">
        <vehicle id="ego" x="1230.006" y="435.712" angle="0.000" type="DEFAULT_VEHTYPE" speed="1.000" pos="60.815" lane="2_0" slope="0.000"/>
    </timestep>
    <timestep time="2.397">
        <vehicle id="ego" x="1230.006" y="435.712" angle="0.000" type="DEFAULT_VEHTYPE" speed="1.000" pos="60.815" lane="2_0" slope="0.000"/>
    </timestep>
    <timestep time="2.414">
        <vehicle id="ego" x="1230.006" y="435.712" angle="0.000" type="DEFAULT_VEHTYPE" speed="1.000" pos="60.815" lane="2_0" slope="0.000"/>
    </timestep>
    <timestep time="2.431">
        <vehicle id="ego" x="1230.006" y="435.712" angle="0.000" type="DEFAULT_VEHTYPE" speed="1.000" pos="60.815" lane="2_0" slope="0.000"/>
    </timestep>
    <timestep time="2.448">
        <vehicle id="ego" x="1230.006" y="435.712" angle="0.000" type="DEFAULT_VEHTYPE" speed="1.000" pos="60.815" lane="2_0" slope="0.000"/>
    </timestep>
    <timestep time="2.465">
        <vehicle id="ego" x="1230.006" y="435.712" angle="0.000" type="DEFAULT_VEHTYPE" speed="1.000" pos="60.815" lane="2_0" slope="0.000"/>
    </timestep>
    <timestep time="2.482">
        <vehicle id="ego" x="1230.006" y="435.712" angle="0.000" type="DEFAULT_VEHTYPE" speed="1.000" pos="60.815" lane="2_0" slope="0.000"/>
    </timestep>
    <timestep time="2.499">
        <vehicle id="ego" x="1230.006" y="435.712" angle="0.000" type="DEFAULT_VEHTYPE" speed="1.000" pos="60.815" lane="2_0" slope="0.000"/>
    </timestep>
    <timestep time="2.516">
        <vehicle id="ego" x="1230.006" y="435.712" angle="0.000" type="DEFAULT_VEHTYPE" speed="1.000" pos="60.815" lane="2_0" slope="0.000"/>
    </timestep>
    <timestep time="2.533">
        <vehicle id="ego" x="1230.006" y="435.712" angle="0.000" type="DEFAULT_VEHTYPE" speed="1.000" pos="60.815" lane="2_0" slope="0.000"/>
    </timestep>
    <timestep time="2.550">
        <vehicle id="ego" x="1230.006" y="435.712" angle="0.000" type="DEFAULT_VEHTYPE" speed="1.000" pos="60.815" lane="2_0" slope="0.000"/>
    </timestep>
    <timestep time="2.567">
        <vehicle id="ego" x="1230.006" y="435.712" angle="0.000" type="DEFAULT_VEHTYPE" speed="1.000" pos="60.815" lane="2_0" slope="0.000"/>
    </timestep>
    <timestep time="2.584">
        <vehicle id="ego" x="1230.006" y="435.712" angle="0.000" type="DEFAULT_VEHTYPE" speed="1.000" pos="60.815" lane="2_0" slope="0.000"/>
    </timestep>
    <timestep time="2.601">
        <vehicle id="ego" x="1230.006" y="435.712" angle="0.000" type="DEFAULT_VEHTYPE" speed="1.000" pos="60.815" lane="2_0" slope="0.000"/>
    </timestep>
    <timestep time="2.618">
        <vehicle id="ego" x="1230.006" y="435.712" angle="0.000" type="DEFAULT_VEHTYPE" speed="1.000" pos="60.815" lane="2_0" slope="0.000"/>
    </timestep>
    <timestep time="2.635">
        <vehicle id="ego" x="1230.006" y="435.712" angle="0.000" type="DEFAULT_VEHTYPE" speed="1.000" pos="60.815" lane="2_0" slope="0.000"/>
    </timestep>
    <timestep time="2.652">