<?xml version="1.0" encoding="UTF-8"?>

<!-- generated on 2022-10-06 14:53:41 by Eclipse SUMO GUI Version 1.14.1
<configuration xmlns:xsi="http://www.w3.org/2001/XMLSchema-instance" xsi:noNamespaceSchemaLocation="http://sumo.dlr.de/xsd/sumoConfiguration.xsd">

    <input>
        <net-file value="LLC.net.xml"/>
        <route-files value="LLC_SUMO_no.rou.xml"/>
    </input>

    <output>
        <fcd-output value="./15miles_results.fcd.xml"/>
    </output>

    <time>
        <begin value="0"/>
        <end value="54470"/>
        <step-length value="0.0166666666666667"/>
    </time>

    <traci_server>
        <remote-port value="60948"/>
    </traci_server>

    <gui_only>
        <gui-settings-file value="freeway.gui.xml"/>
        <start value="true"/>
    </gui_only>

</configuration>
-->

<fcd-export xmlns:xsi="http://www.w3.org/2001/XMLSchema-instance" xsi:noNamespaceSchemaLocation="http://sumo.dlr.de/xsd/fcd_file.xsd">
    <timestep time="0.000">
        <vehicle id="ego" x="774.000" y="3389.000" angle="0.000" type="passenger" speed="2.967" pos="19.723" lane="0.0.00_0" slope="0.000"/>
    </timestep>
</fcd-export>
